 formula,group,  P [GPa],  lambda,  w_log [K],   mu,     Tc [K], reference
   BrH4 ,  194,      240, 0.35   ,   1302    , 0.10,    2.4    , https://arxiv.org/abs/1504.01196
   BrH4 ,  194,      240, 0.35   ,   1302    , 0.13,    0.8    , https://arxiv.org/abs/1504.01196
    SH3 ,  160,      100, 1.70   ,   1050    , 0.13,  141      , https://doi.org/10.7566/JPSJ.87.124711
    SH3 ,  160,      150, 2.22   ,   1000    , 0.13,  176      , https://doi.org/10.7566/JPSJ.87.124711
    SH3 ,  229,      200, 1.94   ,   1230    , 0.13,  189      , https://doi.org/10.7566/JPSJ.87.124711
    SH3 ,  229,      250, 1.58   ,   1400    , 0.13,  173      , https://doi.org/10.7566/JPSJ.87.124711
    SH2 ,    7,      100, 1.49   ,    380    , 0.10,   42      , https://doi.org/10.1038/s41598-019-41607-1
    SH2 ,    7,      110, 1.56   ,    356    , 0.10,   42      , https://doi.org/10.1038/s41598-019-41607-1
    SH2 ,    7,      120, 1.64   ,    344    , 0.10,   42      , https://doi.org/10.1038/s41598-019-41607-1
    SH2 ,    7,      130, 1.75   ,    332    , 0.10,   43      , https://doi.org/10.1038/s41598-019-41607-1
Ternary
   PFH4 ,   36,      300,  0.7142,    963    , 0.13,   27      , By T. Ishikawa
  YCaH12,  221,      180,  2.15  ,     1225.1, 0.10,  229.9    , https://doi.org/10.1088/1361-648X/ab09b4
  YCaH12,  221,      200,  1.96  ,     1281.4, 0.10,  222.0    , https://doi.org/10.1088/1361-648X/ab09b4
  YCaH12,  221,      250,  1.72  ,     1385.1, 0.10,  210.8    , https://doi.org/10.1088/1361-648X/ab09b4
  YCaH12,  221,      180,  2.15  ,     1225.1, 0.13,  215.5    , https://doi.org/10.1088/1361-648X/ab09b4
  YCaH12,  221,      200,  1.96  ,     1281.4, 0.13,  206.9    , https://doi.org/10.1088/1361-648X/ab09b4
  YCaH12,  221,      250,  1.72  ,     1385.1, 0.13,  194.7    , https://doi.org/10.1088/1361-648X/ab09b4
 MgSiH6 ,  200,      250,  0.956 ,    973.810, 0.10,   63.144  , https://doi.org/10.1103/PhysRevB.96.144518
 MgSiH6 ,  200,      275,  0.867 ,   1059.634, 0.10,   58.048  , https://doi.org/10.1103/PhysRevB.96.144518
 MgSiH6 ,  200,      300,  0.806 ,   1106.188, 0.10,   52.651  , https://doi.org/10.1103/PhysRevB.96.144518
 MgSiH6 ,  200,      250,  0.956 ,    973.810, 0.13,   53.651  , https://doi.org/10.1103/PhysRevB.96.144518
 MgSiH6 ,  200,      275,  0.867 ,   1059.634, 0.13,   48.090  , https://doi.org/10.1103/PhysRevB.96.144518
 MgSiH6 ,  200,      300,  0.806 ,   1106.188, 0.13,   42.646  , https://doi.org/10.1103/PhysRevB.96.144518
  Al2H6 ,  223,      250,  0.2176,   1301.11 , 0.10,    0.0006 , https://doi.org/10.1103/PhysRevB.96.144518
 AlSiH6 ,  200,      250,  0.5421,   1370.07 , 0.10,   22.51   , https://doi.org/10.1103/PhysRevB.96.144518
 MgSiH6 ,  200,      200,  1.16 ,     773.03 , 0.10,   66.6    , https://doi.org/10.1039/c7cp05267g
 MgSiH6 ,  200,      250,  0.94 ,     930.59 , 0.10,   59.05   , https://doi.org/10.1039/c7cp05267g
 MgSiH6 ,  200,      300,  0.82 ,    1030.84 , 0.10,   50.29   , https://doi.org/10.1039/c7cp05267g
  KAuH2 ,  123,      120,  0.3  ,            , 0.11,    0.3    , https://doi.org/10.1021/jacs.7b04456
BaAu2H4 ,   79,        0,  2.0  ,            , 0.12,   30      , https://doi.org/10.1021/jacs.7b04456
SrAu2H4 ,   79,        0,  0.9  ,            , 0.12,   10      , https://doi.org/10.1021/jacs.7b04456
  MgCH4 ,  129,       75,  1.17 ,            , 0.10,   88      , https://doi.org/10.1088/2053-1591/2/4/046001
  MgCH4 ,  129,       90,  1.45 ,            , 0.10,   96      , https://doi.org/10.1088/2053-1591/2/4/046001
  MgCH4 ,  129,      105,  1.49 ,            , 0.10,  121      , https://doi.org/10.1088/2053-1591/2/4/046001
  MgCH4 ,  129,      120,  1.43 ,            , 0.10,   84      , https://doi.org/10.1088/2053-1591/2/4/046001
 ClS7H24,  229,      100, 1.85   ,    947    , 0.13,  140      , https://doi.org/10.7566/JPSJ.87.124711
 ClS7H24,  229,      150, 2.18   ,    851    , 0.13,  148      , https://doi.org/10.7566/JPSJ.87.124711
 ClS7H24,  229,      200, 1.32   ,   1380    , 0.13,  136      , https://doi.org/10.7566/JPSJ.87.124711
 ClS7H24,  229,      250, 1.14   ,   1510    , 0.13,  119      , https://doi.org/10.7566/JPSJ.87.124711
ClS15H48,  229,      100, 1.59   ,   1010    , 0.13,  126      , https://doi.org/10.7566/JPSJ.87.124711
ClS15H48,  229,      150, 2.04   ,    893    , 0.13,  146      , https://doi.org/10.7566/JPSJ.87.124711
ClS15H48,  229,      200, 1.52   ,   1380    , 0.13,  161      , https://doi.org/10.7566/JPSJ.87.124711
ClS15H48,  229,      250, 1.23   ,   1610    , 0.13,  142      , https://doi.org/10.7566/JPSJ.87.124711
 PS15H48,  229,      100, 1.69   ,    977    , 0.13,  131      , https://doi.org/10.7566/JPSJ.87.124711
 PS15H48,  229,      150, 2.82   ,    761    , 0.13,  170      , https://doi.org/10.7566/JPSJ.87.124711
 PS15H48,  229,      200, 2.32   ,   1180    , 0.13,  212      , https://doi.org/10.7566/JPSJ.87.124711
 PS15H48,  229,      250, 1.60   ,   1530    , 0.13,  190      , https://doi.org/10.7566/JPSJ.87.124711
  PS7H24,  229,      100, 1.89   ,    895    , 0.13,  136      , https://doi.org/10.7566/JPSJ.87.124711
  PS7H24,  229,      150, 2.22   ,    950    , 0.13,  168      , https://doi.org/10.7566/JPSJ.87.124711
  PS7H24,  229,      200, 2.22   ,   1110    , 0.13,  194      , https://doi.org/10.7566/JPSJ.87.124711
  PS7H24,  229,      250, 1.53   ,   1500    , 0.13,  177      , https://doi.org/10.7566/JPSJ.87.124711
S2Se8H30,     ,      200,  0.73  ,       1400, 0.10,   54      , https://arxiv.org/abs/1812.03384
S3Se7H30,     ,      200,  0.63  ,       1448, 0.10,   39      , https://arxiv.org/abs/1812.03384
S5Se5H30,     ,      200,  0.99  ,       1421, 0.10,   99      , https://arxiv.org/abs/1812.03384
S6Se4H30,     ,      200,  0.91  ,       1414, 0.10,   84      , https://arxiv.org/abs/1812.03384