formula,group,  P [GPa],  lambda,  w_log [K],   mu,     Tc [K], reference
   LaH10,     ,      250,  2.29  ,       1253, 0.13,  212      , https://doi.org/10.1073/pnas.1704505114
   LaH10,     ,      300,  1.78  ,       1488, 0.13,  196      , https://doi.org/10.1073/pnas.1704505114
    YH10,     ,      250,  2.58  ,       1282, 0.13,  244      , https://doi.org/10.1073/pnas.1704505114
    YH10,     ,      300,  2.06  ,       1511, 0.13,  233      , https://doi.org/10.1073/pnas.1704505114
   PtH  ,  194,       90,  0.7815,      266.3, 0.13,   11.96   , https://doi.org/10.1103/PhysRevB.83.214106 
   PtH  ,  194,       95,  0.6424,      326.4, 0.13,    9.154  , https://doi.org/10.1103/PhysRevB.83.214106 
   PtH  ,  194,      100,  0.5771,      362.4, 0.13,    7.383  , https://doi.org/10.1103/PhysRevB.83.214106 
   PtH  ,  194,      120,  0.4700,      425.8, 0.13,    3.775  , https://doi.org/10.1103/PhysRevB.83.214106 
   PtH  ,  194,      140,  0.3874,      461.8, 0.13,    1.670  , https://doi.org/10.1103/PhysRevB.83.214106 
   PtH  ,  194,      160,  0.3468,      471.9, 0.13,    0.8352 , https://doi.org/10.1103/PhysRevB.83.214106 
   SiH4 ,   60,      220,  0.58  ,           , 0.13,   16.5    , https://doi.org/10.1103/PhysRevLett.102.087005
   GeH4 ,   15,      220,  1.12  ,      897  , 0.13,   64      , https://doi.org/10.1103/PhysRevLett.101.107002
   SnH4 ,  191,       70,  1.30  ,      660  , 0.13,   58      , https://doi.org/10.1103/PhysRevLett.98.117004
   SnH4 ,  191,      120,  1.20  ,      921  , 0.13,   73      , https://doi.org/10.1103/PhysRevLett.98.117004
   SnH4 ,  191,      160,  1.29  ,      848  , 0.13,   74      , https://doi.org/10.1103/PhysRevLett.98.117004
   SnH4 ,  191,      120,  1.20  ,      921  , 0.10,   83      , https://doi.org/10.1103/PhysRevLett.98.117004
   SnH4 ,  191,      120,  1.20  ,      921  , 0.12,   77      , https://doi.org/10.1103/PhysRevLett.98.117004
    YH4 ,  139,      120,  1.01  ,     1119  , 0.10,   95      , https://doi.org/10.1038/srep09948
    YH4 ,  139,      120,  1.01  ,     1119  , 0.13,   84      , https://doi.org/10.1038/srep09948
    YH6 ,  229,      120,  2.93  ,           , 0.10,  264      , https://doi.org/10.1038/srep09948
    YH6 ,  229,      120,  2.93  ,           , 0.13,  251      , https://doi.org/10.1038/srep09948
   MgH6 ,  229,      300,  3.29 ,      1450  , 0.12,  263      , https://doi.org/10.1039/C5RA11459D
   MgH6 ,  229,      350,  2.72 ,      1597  , 0.12,  265      , https://doi.org/10.1039/C5RA11459D
   MgH6 ,  229,      400,  2.52 ,      1700  , 0.12,  271      , https://doi.org/10.1039/C5RA11459D
    IH2 ,   62,      100,  0.472,       552.6, 0.10,    5.30   , https://doi.org/10.1039/C5CP05218A
    IH2 ,   62,      150,  0.427,       729.2, 0.10,    4.32   , https://doi.org/10.1039/C5CP05218A
    IH2 ,   62,      200,  0.403,       834.6, 0.10,    3.67   , https://doi.org/10.1039/C5CP05218A
    IH2 ,   62,      240,  0.398,       917.7, 0.10,    3.77   , https://doi.org/10.1039/C5CP05218A
    IH2 ,   62,      100,  0.472,       552.6, 0.13,    3.00   , https://doi.org/10.1039/C5CP05218A
    IH2 ,   62,      150,  0.427,       729.2, 0.13,    2.12   , https://doi.org/10.1039/C5CP05218A
    IH2 ,   62,      200,  0.403,       834.6, 0.13,    1.62   , https://doi.org/10.1039/C5CP05218A
    IH2 ,   62,      240,  0.398,       917.7, 0.13,    1.62   , https://doi.org/10.1039/C5CP05218A
    IH2 ,  166,      240,  0.611,      1366.2, 0.10,   33.05   , https://doi.org/10.1039/C5CP05218A
    IH2 ,  166,      260,  0.594,      1384.5, 0.10,   30.82   , https://doi.org/10.1039/C5CP05218A
    IH2 ,  166,      300,  0.548,      1465.8, 0.10,   25.09   , https://doi.org/10.1039/C5CP05218A
    IH2 ,  166,      240,  0.611,      1366.2, 0.13,   23.55   , https://doi.org/10.1039/C5CP05218A
    IH2 ,  166,      260,  0.594,      1384.5, 0.13,   21.57   , https://doi.org/10.1039/C5CP05218A
    IH2 ,  166,      300,  0.548,      1465.8, 0.13,   16.53   , https://doi.org/10.1039/C5CP05218A
    IH4 ,  191,      120,  0.500,       792.9, 0.10,    9.92   , https://doi.org/10.1039/C5CP05218A
    IH4 ,  191,      160,  0.474,       898.5, 0.10,    8.80   , https://doi.org/10.1039/C5CP05218A
    IH4 ,  191,      200,  0.476,       960.4, 0.10,    9.57   , https://doi.org/10.1039/C5CP05218A
    IH4 ,  191,      250,  0.493,       981.0, 0.10,   11.26   , https://doi.org/10.1039/C5CP05218A
    IH4 ,  191,      120,  0.500,       792.9, 0.13,    6.04   , https://doi.org/10.1039/C5CP05218A
    IH4 ,  191,      160,  0.474,       898.5, 0.13,    5.01   , https://doi.org/10.1039/C5CP05218A
    IH4 ,  191,      200,  0.476,       960.4, 0.13,    5.48   , https://doi.org/10.1039/C5CP05218A
    IH4 ,  191,      250,  0.493,       981.0, 0.13,    6.70   , https://doi.org/10.1039/C5CP05218A
    IH4 ,  191,      300,  0.525,       849.4, 0.13,    7.92   , https://doi.org/10.1039/C5CP05218A
    PH1 ,  139,       80,  1.011,       546.3,     ,   41.13   , https://doi.org/10.1103/PhysRevB.93.020508
    PH1 ,  139,      120,  0.942,       539.3,     ,   33.14   , https://doi.org/10.1103/PhysRevB.93.020508
    PH1 ,  139,      200,  1.288,       680.4,     ,   61.79   , https://doi.org/10.1103/PhysRevB.93.020508
    PH1 ,  139,      250,  1.423,       816.9,     ,   82.85   , https://doi.org/10.1103/PhysRevB.93.020508
    PH2 ,  139,       80,  0.939,       752.7,     ,   47.17   , https://doi.org/10.1103/PhysRevB.93.020508
    PH2 ,  139,      120,  1.049,       667.6,     ,   47.95   , https://doi.org/10.1103/PhysRevB.93.020508
    PH2 ,  139,      150,  1.093,       704.4,     ,   56.34   , https://doi.org/10.1103/PhysRevB.93.020508
    PH2 ,  139,      180,  1.176,       719.7,     ,   61.01   , https://doi.org/10.1103/PhysRevB.93.020508
    PH2 ,  139,      200,  1.288,       709.3,     ,   67.25   , https://doi.org/10.1103/PhysRevB.93.020508
    PH2 ,  139,      220,  1.349,       764.1,     ,   78.17   , https://doi.org/10.1103/PhysRevB.93.020508
    PH2 ,  139,      260,  1.307,       813.8,     ,   86.74   , https://doi.org/10.1103/PhysRevB.93.020508
    PH3 ,   12,       80,  1.010,       815.8,     ,   44.83   , https://doi.org/10.1103/PhysRevB.93.020508
    PH3 ,   12,       90,  0.943,       835.2,     ,   40.16   , https://doi.org/10.1103/PhysRevB.93.020508
    PH3 ,   12,      110,  0.876,       849.3,     ,   36.26   , https://doi.org/10.1103/PhysRevB.93.020508
    PH3 ,   12,      140,  0.912,       901.0,     ,   42.30   , https://doi.org/10.1103/PhysRevB.93.020508
    PH3 ,   12,      180,  1.005,       882.3,     ,   50.68   , https://doi.org/10.1103/PhysRevB.93.020508
    PH3 ,   12,      220,  1.089,       734.1,     ,   55.75   , https://doi.org/10.1103/PhysRevB.93.020508
    PH3 ,   12,      260,  1.116,       965.7,     ,   72.12   , https://doi.org/10.1103/PhysRevB.93.020508
    YH6 ,  229,      200,  1.92  ,     1290.6, 0.10,  220.5    , https://doi.org/10.1088/1361-648X/ab09b4
    YH6 ,  229,      200,  1.92  ,     1290.6, 0.13,  205.2    , https://doi.org/10.1088/1361-648X/ab09b4
   CaH6 ,  229,      200,  1.98  ,     1237.7, 0.10,  211.3    , https://doi.org/10.1088/1361-648X/ab09b4
   CaH6 ,  229,      200,  1.98  ,     1237.7, 0.13,  197.1    , https://doi.org/10.1088/1361-648X/ab09b4
   RuH1 ,  225,      100,  0.32 ,     447.8  , 0.10,    0.41   , https://doi.org/10.1039/C5CP06617D
   RuH3 ,  221,      100,  0.42 ,     667.2  , 0.10,    3.57   , https://doi.org/10.1039/C5CP06617D
   RuH3 ,  223,      200,  0.35 ,     725.9  , 0.10,    1.25   , https://doi.org/10.1039/C5CP06617D
   FeH5 ,  139,      150, 0.97   ,    642.3  , 0.10,   45.8    , https://doi.org/10.1021/acs.jpcc.8b01270
   FeH5 ,  139,      200, 1.05   ,    492.7  , 0.10,   39.7    , https://doi.org/10.1021/acs.jpcc.8b01270
   FeH5 ,  139,      300, 1.26   ,    339.5  , 0.10,   35.7    , https://doi.org/10.1021/acs.jpcc.8b01270
   FeH5 ,  139,      150, 0.97   ,    642.3  , 0.15,   33.6    , https://doi.org/10.1021/acs.jpcc.8b01270
   FeH5 ,  139,      200, 1.05   ,    492.7  , 0.15,   30.6    , https://doi.org/10.1021/acs.jpcc.8b01270
   FeH5 ,  139,      300, 1.26   ,    339.5  , 0.15,   28.7    , https://doi.org/10.1021/acs.jpcc.8b01270
   FeH6 ,   65,      100, 0.37   ,    973.1  , 0.10,    3.9    , https://doi.org/10.1021/acs.jpcc.8b01270
   FeH6 ,   65,      150, 0.92   ,    665.6  , 0.10,   42.9    , https://doi.org/10.1021/acs.jpcc.8b01270
   FeH6 ,   65,      300, 0.94   ,    549.6  , 0.10,   37.3    , https://doi.org/10.1021/acs.jpcc.8b01270
   FeH6 ,   65,      100, 0.37   ,    973.1  , 0.10,    1.2    , https://doi.org/10.1021/acs.jpcc.8b01270
   FeH6 ,   65,      150, 0.92   ,    665.6  , 0.10,   31.3    , https://doi.org/10.1021/acs.jpcc.8b01270
   FeH6 ,   65,      300, 0.94   ,    549.6  , 0.10,   27.6    , https://doi.org/10.1021/acs.jpcc.8b01270
   BeH2 ,   63,      230,        ,           , 0.10,   42.38   , https://doi.org/10.1063/1.4898145
   BeH2 ,   63,      250, 0.63   ,   1670.7  , 0.10,   44.10   , https://doi.org/10.1063/1.4898145
   BeH2 ,   63,      275,        ,           , 0.10,   45.10   , https://doi.org/10.1063/1.4898145
   BeH2 ,   63,      290,        ,           , 0.10,   37.06   , https://doi.org/10.1063/1.4898145
   BeH2 ,   63,      310,        ,           , 0.10,   34.08   , https://doi.org/10.1063/1.4898145
   BeH2 ,  129,      350,        ,           , 0.10,   75.26   , https://doi.org/10.1063/1.4898145
   BeH2 ,  129,      365,        ,           , 0.10,   97.00   , https://doi.org/10.1063/1.4898145
   BeH2 ,  129,      390,        ,           , 0.10,   63.25   , https://doi.org/10.1063/1.4898145
   BeH2 ,  129,      400, 0.65   ,   2170    , 0.10,   62.40   , https://doi.org/10.1063/1.4898145
   BeH2 ,   63,      230,        ,           , 0.13,   30.85   , https://doi.org/10.1063/1.4898145
   BeH2 ,   63,      250, 0.63   ,   1670.7  , 0.13,   32.10   , https://doi.org/10.1063/1.4898145
   BeH2 ,   63,      275,        ,           , 0.13,   32.66   , https://doi.org/10.1063/1.4898145
   BeH2 ,   63,      290,        ,           , 0.13,   26.47   , https://doi.org/10.1063/1.4898145
   BeH2 ,   63,      310,        ,           , 0.13,   24.42   , https://doi.org/10.1063/1.4898145
   BeH2 ,  129,      350,        ,           , 0.13,   63.63   , https://doi.org/10.1063/1.4898145
   BeH2 ,  129,      365,        ,           , 0.13,   78.88   , https://doi.org/10.1063/1.4898145
   BeH2 ,  129,      390,        ,           , 0.13,   50.98   , https://doi.org/10.1063/1.4898145
   BeH2 ,  129,      400, 0.65   ,   2170    , 0.13,   46.10   , https://doi.org/10.1063/1.4898145
   SrH6 ,  166,      250, 1.10   ,   1358    , 0.10,  108      , https://arxiv.org/abs/1806.00163
   PtH  ,  194,      113, 0.85   ,    328.66 , 0.10,   17.2    , https://doi.org/10.1103/PhysRevB.84.054543
   PtH  ,  194,      130, 0.62   ,    591.01 , 0.10,   15.1    , https://doi.org/10.1103/PhysRevB.84.054543
   PtH  ,  194,      160, 0.53   ,    658.56 , 0.10,    9.7    , https://doi.org/10.1103/PhysRevB.84.054543
   PtH  ,  194,      192, 0.48   ,    706.74 , 0.10,    7.1    , https://doi.org/10.1103/PhysRevB.84.054543
   TaH2 ,   62,      200, 0.57   ,    409    , 0.10,    7.1    , https://doi.org/10.1021/acs.inorgchem.6b02822 
   TaH4 ,  166,      250, 0.71   ,    866    , 0.10,   31      , https://doi.org/10.1021/acs.inorgchem.6b02822 
   TaH6 ,   43,      300, 1.56   ,   1151    , 0.10,  135.8    , https://doi.org/10.1021/acs.inorgchem.6b02822 
   TaH2 ,   62,      200, 0.57   ,    409    , 0.13,    5.4    , https://doi.org/10.1021/acs.inorgchem.6b02822 
   TaH4 ,  166,      250, 0.71   ,    866    , 0.13,   23.9    , https://doi.org/10.1021/acs.inorgchem.6b02822 
   TaH6 ,   43,      300, 1.56   ,   1151    , 0.13,  124.2    , https://doi.org/10.1021/acs.inorgchem.6b02822 
   NbH4 ,     ,      300, 0.82   ,    888.79 , 0.10,   46.77   , https://doi.org/10.1140/epjb/e2014-50300-5
    VH2 ,   62,        0,        ,           , 0.10,    0.5    , https://doi.org/10.1063/1.4866179 
    VH2 ,   62,       60,        ,           , 0.10,    4      , https://doi.org/10.1063/1.4866179 
   NbH2 ,  186,        0,        ,           , 0.10,    1.5    , https://doi.org/10.1063/1.4866179 
   NbH2 ,  186,       60,        ,           , 0.10,    0.5    , https://doi.org/10.1063/1.4866179 
   ZrH  ,   63,      120, 0.71   ,    295.6  , 0.10,   10.6    , https://doi.org/10.1039/C6CP08036G
   TiH2 ,  225,        0, 0.84   ,    127.1  , 0.10,    6.7    , https://doi.org/10.1038/srep28102 
   ScH2 ,  225,        0, 0.696  ,    364.2  , 0.10,   22.826  , https://doi.org/10.1039/C6RA11862C
   ScH2 ,  225,       10, 0.707  ,    433.4  , 0.10,   27.832  , https://doi.org/10.1039/C6RA11862C
   ScH2 ,  225,       20, 0.878  ,    396.7  , 0.10,   34.347  , https://doi.org/10.1039/C6RA11862C
   ScH2 ,  225,       30, 0.976  ,    389.0  , 0.10,   38.110  , https://doi.org/10.1039/C6RA11862C
   ScH2 ,  225,       40, 0.849  ,    381.4  , 0.10,   31.661  , https://doi.org/10.1039/C6RA11862C
   ScH2 ,  225,       50, 0.936  ,    342.7  , 0.10,   32.024  , https://doi.org/10.1039/C6RA11862C
   ScH2 ,  225,       60, 0.872  ,    367.5  , 0.10,   31.550  , https://doi.org/10.1039/C6RA11862C
   ScH2 ,  225,       70, 0.856  ,    361.8  , 0.10,   30.349  , https://doi.org/10.1039/C6RA11862C
   ScH2 ,  225,       80, 0.869  ,    384.9  , 0.10,   32.903  , https://doi.org/10.1039/C6RA11862C
   XeH  ,   71,      100, 1.04   ,           , 0.12,   28.96   , https://doi.org/10.1063/1.4931931 
   XeH  ,   71,      200, 0.79   ,           , 0.12,   16.95   , https://doi.org/10.1063/1.4931931 
   XeH  ,   71,      300, 0.69   ,           , 0.12,   12.92   , https://doi.org/10.1063/1.4931931 
   XeH2 ,   63,      400, 0.69   ,           , 0.12,   28.49   , https://doi.org/10.1063/1.4931931 
   XeH2 ,   63,      500, 0.62   ,           , 0.12,   21.02   , https://doi.org/10.1063/1.4931931 
   XeH2 ,   63,      600, 0.56   ,           , 0.12,   16.00   , https://doi.org/10.1063/1.4931931 
   B2H6 ,   61,      360, 1.32   ,   1270    , 0.13,  125      , https://doi.org/10.1103/PhysRevB.84.104118 
   AlH3 ,  223,       73, 0.5924 ,    389.1  , 0.07,   11.50   , https://doi.org/10.1063/1.4821287
   AlH3 ,  223,       75, 0.5752 ,    379.2  , 0.07,   10.51   , https://doi.org/10.1063/1.4821287
   AlH3 ,  223,       80, 0.5371 ,    363.9  , 0.07,    8.119  , https://doi.org/10.1063/1.4821287
   AlH3 ,  223,       85, 0.5029 ,    372.3  , 0.07,    6.963  , https://doi.org/10.1063/1.4821287
   AlH3 ,  223,       90, 0.4705 ,    378.9  , 0.07,    5.560  , https://doi.org/10.1063/1.4821287
   AlH3 ,  223,       95, 0.4400 ,    385.8  , 0.07,    4.486  , https://doi.org/10.1063/1.4821287
   AlH3 ,  223,      100, 0.4114 ,    392.1  , 0.07,    3.495  , https://doi.org/10.1063/1.4821287
   AlH3 ,  223,      105, 0.3886 ,    399.3  , 0.07,    2.752  , https://doi.org/10.1063/1.4821287
   AlH3 ,  223,      110, 0.3638 ,    397.2  , 0.07,    1.927  , https://doi.org/10.1063/1.4821287
   GaH3 ,  223,      120,        ,           , 0.10,  122.99   , https://doi.org/10.1088/0953-2048/27/1/015003
   InH3 ,  143,      200, 0.919  ,    666.829, 0.10,   40.499  , https://doi.org/10.1021/acs.inorgchem.5b01684
   InH3 ,  143,      250, 0.857  ,    729.191, 0.10,   39.085  , https://doi.org/10.1021/acs.inorgchem.5b01684
   InH3 ,  143,      300, 0.837  ,    740.273, 0.10,   37.972  , https://doi.org/10.1021/acs.inorgchem.5b01684
   InH3 ,  143,      200, 0.919  ,    666.829, 0.13,   34.090  , https://doi.org/10.1021/acs.inorgchem.5b01684
   InH3 ,  143,      250, 0.857  ,    729.191, 0.13,   32.270  , https://doi.org/10.1021/acs.inorgchem.5b01684
   InH3 ,  143,      300, 0.837  ,    740.273, 0.13,   31.133  , https://doi.org/10.1021/acs.inorgchem.5b01684
   InH5 ,   11,      150, 0.85   ,    509    , 0.10,   27.1    , https://doi.org/10.1021/acs.inorgchem.5b01684
   InH5 ,   11,      150, 0.85   ,    509    , 0.13,   22.4    , https://doi.org/10.1021/acs.inorgchem.5b01684
   SiH4 ,   15,      125, 0.89   ,    959    , 0.10,   55      , https://doi.org/10.1209/0295-5075/78/37003
   SiH4 ,   15,      125, 0.89   ,    959    , 0.12,   49      , https://doi.org/10.1209/0295-5075/78/37003
   SiH4 ,   15,      125, 0.89   ,    959    , 0.13,   46      , https://doi.org/10.1209/0295-5075/78/37003
   SiH4 ,   15,       90, 0.81   ,    987    , 0.10,   48      , https://doi.org/10.1209/0295-5075/78/37003
   SiH4 ,   15,       90, 0.81   ,    987    , 0.12,   42      , https://doi.org/10.1209/0295-5075/78/37003
   SiH4 ,   15,       90, 0.81   ,    987    , 0.13,   39      , https://doi.org/10.1209/0295-5075/78/37003
   SiH4 ,  147,      300, 0.63   ,   1320    , 0.12,   32      , https://doi.org/10.1038/srep13039
   SiH8 ,   68,      250, 1.625  ,    871    , 0.10,  107      , https://doi.org/10.1073/pnas.1007354107
   SiH8 ,   68,      250, 1.625  ,    871    , 0.13,   98      , https://doi.org/10.1073/pnas.1007354107
  Si2H6 ,    2,      175, 0.980  ,   1121.42 , 0.10,   75.63   , https://doi.org/10.1073/pnas.1005242107
  Si2H6 ,    2,      200, 1.089  ,   1164.28 , 0.10,   91.78   , https://doi.org/10.1073/pnas.1005242107
  Si2H6 ,  221,      275, 1.397  ,   1443.60 , 0.10,  153.44   , https://doi.org/10.1073/pnas.1005242107
  Si2H6 ,   15,      300, 0.812  ,    866.13 , 0.10,   41.83   , https://doi.org/10.1073/pnas.1005242107
  Si2H6 ,    2,      175, 0.980  ,   1121.42 , 0.13,   64.62   , https://doi.org/10.1073/pnas.1005242107
  Si2H6 ,    2,      200, 1.089  ,   1164.28 , 0.13,   80.10   , https://doi.org/10.1073/pnas.1005242107
  Si2H6 ,  221,      275, 1.397  ,   1443.60 , 0.13,  138.86   , https://doi.org/10.1073/pnas.1005242107
  Si2H6 ,   15,      300, 0.812  ,    866.13 , 0.13,   33.97   , https://doi.org/10.1073/pnas.1005242107
  Si2H6 ,   63,      100, 0.84   ,    478    , 0.10,   24.6    , https://doi.org/10.1103/PhysRevLett.108.117004
  Si2H6 ,   63,      140, 0.68   ,    553    , 0.10,   17.9    , https://doi.org/10.1103/PhysRevLett.108.117004
  Si2H6 ,   63,      160, 0.66   ,    556    , 0.10,   16.7    , https://doi.org/10.1103/PhysRevLett.108.117004
  Si2H6 ,   63,      200, 0.68   ,    501    , 0.10,   16.2    , https://doi.org/10.1103/PhysRevLett.108.117004
  Si2H6 ,   63,      220, 0.76   ,    384    , 0.10,   16.1    , https://doi.org/10.1103/PhysRevLett.108.117004
  Si2H6 ,   63,      100, 0.84   ,    478    , 0.13,   20.2    , https://doi.org/10.1103/PhysRevLett.108.117004
  Si2H6 ,   63,      140, 0.68   ,    553    , 0.13,   13.5    , https://doi.org/10.1103/PhysRevLett.108.117004
  Si2H6 ,   63,      160, 0.66   ,    556    , 0.13,   12.4    , https://doi.org/10.1103/PhysRevLett.108.117004
  Si2H6 ,   63,      200, 0.68   ,    501    , 0.13,   12.2    , https://doi.org/10.1103/PhysRevLett.108.117004
  Si2H6 ,   63,      220, 0.76   ,    384    , 0.13,   12.7    , https://doi.org/10.1103/PhysRevLett.108.117004
   GeH4 ,   65,       20, 1.03   ,           , 0.10,   47      , https://doi.org/10.1007/s10948-010-0675-2
   GeH4 ,   65,       20, 1.03   ,           , 0.15,   36      , https://doi.org/10.1007/s10948-010-0675-2
   GeH8 ,   14,      250, 1.43   ,           , 0.10,   90      , https://doi.org/10.1021/jp211051r
   GeH8 ,   14,      250, 1.43   ,           , 0.15,   76      , https://doi.org/10.1021/jp211051r
   GeH8 ,   14,      230, 1.571  ,           , 0.10,   91.78   , https://doi.org/10.1016/j.physb.2012.10.039 
   GeH8 ,   14,      250, 1.431  ,           , 0.10,   89.56   , https://doi.org/10.1016/j.physb.2012.10.039 
   GeH8 ,   14,      270, 1.342  ,           , 0.10,   87.78   , https://doi.org/10.1016/j.physb.2012.10.039 
   GeH8 ,   14,      290, 1.282  ,           , 0.10,   84.89   , https://doi.org/10.1016/j.physb.2012.10.039 
   GeH8 ,   14,      310, 1.189  ,           , 0.10,   78.67   , https://doi.org/10.1016/j.physb.2012.10.039 