formula,group,  P [GPa],  lambda,  w_log [K],   mu,     Tc [K], reference
   SeH6 ,   51,      150,    0.84,     762.78, 0.10,   39      , https://doi.org/10.1002/pssb.201800224
   SeH6 ,   51,      200,    0.73,     724.34, 0.10,   28      , https://doi.org/10.1002/pssb.201800224
   SeH6 ,   51,      300,    0.62,    1039.82, 0.10,   26      , https://doi.org/10.1002/pssb.201800224
   SeH6 ,   51,      150,    0.84,     762.78, 0.13,   32      , https://doi.org/10.1002/pssb.201800224
   SeH6 ,   51,      200,    0.73,     724.34, 0.13,   22      , https://doi.org/10.1002/pssb.201800224
   SeH6 ,   51,      300,    0.62,    1039.82, 0.13,   19      , https://doi.org/10.1002/pssb.201800224
   SeH6 ,   12,      265,    1.06,    1158.31, 0.10,   87      , https://doi.org/10.1002/pssb.201800224
   SeH6 ,   12,      270,    1.05,    1157.37, 0.10,   86      , https://doi.org/10.1002/pssb.201800224
   SeH6 ,   12,      300,    1.62,     585.26, 0.10,   56      , https://doi.org/10.1002/pssb.201800224
   SeH6 ,   12,      265,    1.06,    1158.31, 0.13,   76      , https://doi.org/10.1002/pssb.201800224
   SeH6 ,   12,      270,    1.05,    1157.37, 0.13,   75      , https://doi.org/10.1002/pssb.201800224
   SeH6 ,   12,      300,    1.62,     585.26, 0.13,   50      , https://doi.org/10.1002/pssb.201800224
   ScH2 ,  191,      300,    0.44,      543.5, 0.10,    4      , https://doi.org/10.1021/acs.jpcc.7b12124
   ScH3 ,  194,      400,    0.17,      571.8, 0.10,    1      , https://doi.org/10.1021/acs.jpcc.7b12124
   ScH4 ,  139,      120,    1.68,      734.3, 0.10,   92      , https://doi.org/10.1021/acs.jpcc.7b12124
   ScH4 ,  139,      250,    0.81,     1891.8, 0.10,   68      , https://doi.org/10.1021/acs.jpcc.7b12124
   ScH6 ,  194,      250,    0.57,     1439.8, 0.10,   29      , https://doi.org/10.1021/acs.jpcc.7b12124
   ScH6 ,  229,      350,    1.25,     1433.4, 0.10,  135      , https://doi.org/10.1021/acs.jpcc.7b12124
   ScH7 ,   63,      300,    1.84,     1245.2, 0.10,  169      , https://doi.org/10.1021/acs.jpcc.7b12124
   ScH9 ,  109,      300,    1.94,     1156.2, 0.10,  163      , https://doi.org/10.1021/acs.jpcc.7b12124
   ScH10,   63,      250,    1.17,     1366.8, 0.10,  120      , https://doi.org/10.1021/acs.jpcc.7b12124
   ScH12,   71,      350,    1.23,     1525.3, 0.10,  141      , https://doi.org/10.1021/acs.jpcc.7b12124
   C6H6 ,   14,      185,        ,      724.3, 0.13,    7.18   , https://doi.org/10.1088/1361-648X/aac3ff
   C6H6 ,   14,      190,        ,      571.7, 0.13,   13.67   , https://doi.org/10.1088/1361-648X/aac3ff 
   C6H6 ,   14,      195,        ,      365.6, 0.13,   15.75   , https://doi.org/10.1088/1361-648X/aac3ff
   C6H6 ,   14,      185,        ,      724.3, 0.10,   11.19   , https://doi.org/10.1088/1361-648X/aac3ff
   C6H6 ,   14,      190,        ,      571.7, 0.10,   18.13   , https://doi.org/10.1088/1361-648X/aac3ff
   C6H6 ,   14,      195,        ,      365.6, 0.10,   19.16   , https://doi.org/10.1088/1361-648X/aac3ff
   ScH3 ,  225,      135,    0.23,        918, 0.10,    0      , https://doi.org/10.1103/PhysRevB.96.144108
   ScH3 ,  225,      135,    0.23,        918, 0.13,    0      , https://doi.org/10.1103/PhysRevB.96.144108
   ScH4 ,  139,      195,    0.89,       1340, 0.10,   81      , https://doi.org/10.1103/PhysRevB.96.144108
   ScH4 ,  139,      195,    0.89,       1340, 0.13,   67      , https://doi.org/10.1103/PhysRevB.96.144108
   ScH6 ,  194,      145,    0.95,       1110, 0.10,   75      , https://doi.org/10.1103/PhysRevB.96.144108
   ScH6 ,  194,      145,    0.95,       1110, 0.13,   63      , https://doi.org/10.1103/PhysRevB.96.144108
   ScH6 ,  229,      285,    1.33,       1300, 0.10,  147      , https://doi.org/10.1103/PhysRevB.96.144108
   ScH6 ,  229,      285,    1.33,       1300, 0.13,  130      , https://doi.org/10.1103/PhysRevB.96.144108
   ScH6 ,  194,      130,        ,           , 0.10,  122.6    , https://doi.org/10.1103/PhysRevB.96.094513
   ScH6 ,  194,      200,        ,           , 0.10,  103.6    , https://doi.org/10.1103/PhysRevB.96.094513
   ScH6 ,  194,      300,        ,           , 0.10,   65.59   , https://doi.org/10.1103/PhysRevB.96.094513
   ScH4 ,  139,      200,        ,           , 0.10,  104.6    , https://doi.org/10.1103/PhysRevB.96.094513
   ScH4 ,  139,      250,        ,           , 0.10,   90.81   , https://doi.org/10.1103/PhysRevB.96.094513
   ScH4 ,  139,      300,        ,           , 0.10,   90.81   , https://doi.org/10.1103/PhysRevB.96.094513
   ScH8 ,   71,      300,        ,           , 0.10,  117.1    , https://doi.org/10.1103/PhysRevB.96.094513
   ScH8 ,   71,      350,        ,           , 0.10,  119.8    , https://doi.org/10.1103/PhysRevB.96.094513
   ScH8 ,   71,      400,        ,           , 0.10,  150.7    , https://doi.org/10.1103/PhysRevB.96.094513
   ScH6 ,  229,      300,        ,           , 0.10,  123.8    , https://doi.org/10.1103/PhysRevB.96.094513
   ScH6 ,  229,      350,        ,           , 0.10,  120.9    , https://doi.org/10.1103/PhysRevB.96.094513
   ScH6 ,  229,      400,        ,           , 0.10,  120.9    , https://doi.org/10.1103/PhysRevB.96.094513
   ScH6 ,  229,      300,        ,           , 0.10,  100.5    , https://doi.org/10.1103/PhysRevLett.119.107001
   ScH6 ,  229,      300,        ,           , 0.13,   87.94   , https://doi.org/10.1103/PhysRevLett.119.107001
   ScH9 ,  194,      400,        ,           , 0.10,  181.8    , https://doi.org/10.1103/PhysRevLett.119.107001
   ScH9 ,  194,      400,        ,           , 0.13,  167.9    , https://doi.org/10.1103/PhysRevLett.119.107001
    YH6 ,  229,      120,        ,           , 0.10,  264.5    , https://doi.org/10.1103/PhysRevLett.119.107001
    YH6 ,  229,      120,        ,           , 0.13,  250.6    , https://doi.org/10.1103/PhysRevLett.119.107001
    YH9 ,  194,      150,        ,           , 0.10,  267.2    , https://doi.org/10.1103/PhysRevLett.119.107001
    YH9 ,  194,      150,        ,           , 0.13,  253.2    , https://doi.org/10.1103/PhysRevLett.119.107001
    YH10,  225,      400,        ,           , 0.10,  310.2    , https://doi.org/10.1103/PhysRevLett.119.107001
    YH10,  225,      400,        ,           , 0.13,  287.2    , https://doi.org/10.1103/PhysRevLett.119.107001
   LaH6 ,  167,      100,        ,           , 0.10,  170.8    , https://doi.org/10.1103/PhysRevLett.119.107001
   LaH6 ,  167,      100,        ,           , 0.13,  154.8    , https://doi.org/10.1103/PhysRevLett.119.107001
   LaH9 ,    9,       50,        ,           , 0.10,   27.99   , https://doi.org/10.1103/PhysRevLett.119.107001
   LaH9 ,    9,       50,        ,           , 0.13,   21.01   , https://doi.org/10.1103/PhysRevLett.119.107001
   CeH9 ,  194,      100,        ,           , 0.10,   53.61   , https://doi.org/10.1103/PhysRevLett.119.107001
   CeH9 ,  194,      100,        ,           , 0.13,   47.33   , https://doi.org/10.1103/PhysRevLett.119.107001
   CeH10,  225,      200,        ,           , 0.10,   59.75   , https://doi.org/10.1103/PhysRevLett.119.107001
   CeH10,  225,      200,        ,           , 0.13,   49.28   , https://doi.org/10.1103/PhysRevLett.119.107001
    YH3 ,   11,      120,   0.676,    601.310, 0.10,   19      , https://doi.org/10.1088/1361-648X/aa787d
    YH3 ,  194,      120,   0.417,   1162.113, 0.10,    6      , https://doi.org/10.1088/1361-648X/aa787d
    YH3 ,   11,      200,   0.534,    569.413, 0.10,    9      , https://doi.org/10.1088/1361-648X/aa787d
    YH3 ,  194,      200,   0.232,    658.749, 0.10,    0      , https://doi.org/10.1088/1361-648X/aa787d
    YH3 ,  139,      200,   0.270,    579.837, 0.10,    0      , https://doi.org/10.1088/1361-648X/aa787d
    YH4 ,  139,      120,   0.980,   1388.606, 0.10,   94      , https://doi.org/10.1088/1361-648X/aa787d
    YH4 ,  139,      200,   0.764,   1289.016, 0.10,   55      , https://doi.org/10.1088/1361-648X/aa787d
   LaH4 ,  139,      300,    0.43,       1624, 0.10,   10      , https://doi.org/10.1073/pnas.1704505114
   LaH4 ,  139,      300,    0.43,       1624, 0.13,    5      , https://doi.org/10.1073/pnas.1704505114
   LaH8 ,   12,      300,    1.12,       1591, 0.10,  131      , https://doi.org/10.1073/pnas.1704505114
   LaH8 ,   12,      300,    1.12,       1591, 0.13,  114      , https://doi.org/10.1073/pnas.1704505114
   LaH10,  225,      210,    3.41,        848, 0.10,  238      , https://doi.org/10.1073/pnas.1704505114
   LaH10,  225,      210,    3.41,        848, 0.13,  219      , https://doi.org/10.1073/pnas.1704505114
   LaH10,  225,      250,    2.29,       1253, 0.10,  232      , https://doi.org/10.1073/pnas.1704505114
   LaH10,  225,      250,    2.29,       1253, 0.13,  212      , https://doi.org/10.1073/pnas.1704505114
   LaH10,  225,      300,    1.78,       1488, 0.10,  215      , https://doi.org/10.1073/pnas.1704505114
   LaH10,  225,      300,    1.78,       1488, 0.13,  196      , https://doi.org/10.1073/pnas.1704505114
    YH10,  229,      250,    2.58,       1282, 0.10,  265      , https://doi.org/10.1073/pnas.1704505114
    YH10,  229,      250,    2.58,       1282, 0.13,  244      , https://doi.org/10.1073/pnas.1704505114
    YH10,  229,      300,    2.06,       1511, 0.10,  255      , https://doi.org/10.1073/pnas.1704505114
    YH10,  229,      300,    2.06,       1511, 0.13,  233      , https://doi.org/10.1073/pnas.1704505114
    VH  ,  166,      200,   0.396,        567, 0.10,     2.24  , https://doi.org/10.1021/acs.inorgchem.7b01686
    VH  ,  166,      200,   0.396,        567, 0.13,     0.96  , https://doi.org/10.1021/acs.inorgchem.7b01686
    VH2 ,   62,      200,   0.503,        493, 0.10,     6.12  , https://doi.org/10.1021/acs.inorgchem.7b01686
    VH2 ,   62,      200,   0.503,        493, 0.13,     3.71  , https://doi.org/10.1021/acs.inorgchem.7b01686
    VH3 ,  225,      200,   0.475,        466, 0.10,     4.59  , https://doi.org/10.1021/acs.inorgchem.7b01686
    VH3 ,  225,      200,   0.475,        466, 0.13,     2.62  , https://doi.org/10.1021/acs.inorgchem.7b01686
    VH5 ,  194,      200,   0.530,       1210, 0.10,    18.5   , https://doi.org/10.1021/acs.inorgchem.7b01686
    VH5 ,  194,      200,   0.530,       1210, 0.13,    11.8   , https://doi.org/10.1021/acs.inorgchem.7b01686
    VH5 ,   63,      300,   0.663,        936, 0.10,    25.1   , https://doi.org/10.1021/acs.inorgchem.7b01686
    VH5 ,   63,      300,   0.663,        936, 0.13,    18.3   , https://doi.org/10.1021/acs.inorgchem.7b01686
    VH8 ,   12,      300,   1.135,        876, 0.10,    71.4   , https://doi.org/10.1021/acs.inorgchem.7b01686
    VH8 ,   12,      300,   1.135,        876, 0.13,    62.8   , https://doi.org/10.1021/acs.inorgchem.7b01686
   ScH3 ,     ,       18,        ,           , 0.10,    19.3   , https://doi.org/10.1088/0953-2048/27/11/115012
   LaH3 ,     ,       11,        ,           , 0.10,    22.5   , https://doi.org/10.1088/0953-2048/27/11/115012
   CrH  ,  194,        0,        ,      338.3, 0.10,    10.60  , https://doi.org/10.1038/srep17764
   CrH  ,  194,       60,        ,      414.9, 0.10,     4.156 , https://doi.org/10.1038/srep17764
   CrH  ,  194,      120,        ,      529.8, 0.10,     3.290 , https://doi.org/10.1038/srep17764
   CrH  ,  194,      200,        ,      557.4, 0.10,     3.100 , https://doi.org/10.1038/srep17764
   CrH3 ,  194,       81,        ,      568.1, 0.10,    37.10  , https://doi.org/10.1038/srep17764
   CrH3 ,  194,      120,        ,      629.8, 0.10,    29.49  , https://doi.org/10.1038/srep17764
   CrH3 ,  194,      160,        ,      670.2, 0.10,    28.09  , https://doi.org/10.1038/srep17764
   CrH3 ,  194,      200,        ,      808.5, 0.10,    27.11  , https://doi.org/10.1038/srep17764
   ThH3 ,  166,      100,  0.11  ,       1664, 0.10,      0    , https://doi.org/10.1021/acsami.8b17100
   ThH3 ,  166,      100,  0.11  ,       1664, 0.15,      0    , https://doi.org/10.1021/acsami.8b17100
  Th3H10,   71,       10,  0.48  ,        379, 0.10,    3.9    , https://doi.org/10.1021/acsami.8b17100
  Th3H10,   71,       10,  0.48  ,        379, 0.15,    1.2    , https://doi.org/10.1021/acsami.8b17100
   ThH4 ,  139,       85,  0.36  ,       1003, 0.10,    3.0    , https://doi.org/10.1021/acsami.8b17100
   ThH4 ,  139,       85,  0.36  ,       1003, 0.15,    0.5    , https://doi.org/10.1021/acsami.8b17100
   ThH7 ,   14,      100,  0.84  ,       1192, 0.10,   64.8    , https://doi.org/10.1021/acsami.8b17100
   ThH7 ,   14,      100,  0.84  ,       1192, 0.15,   45.3    , https://doi.org/10.1021/acsami.8b17100
   ThH10,  225,      100,  2.50  ,       1073, 0.10,  221.1    , https://doi.org/10.1021/acsami.8b17100
   ThH10,  225,      100,  2.50  ,       1073, 0.15,  193.9    , https://doi.org/10.1021/acsami.8b17100
   ThH10,  225,      200,  1.35  ,       1627, 0.10,  182.6    , https://doi.org/10.1021/acsami.8b17100
   ThH10,  225,      200,  1.35  ,       1627, 0.15,  150.5    , https://doi.org/10.1021/acsami.8b17100
   ThH10,  225,      300,  1.11  ,       1775, 0.10,  155.4    , https://doi.org/10.1021/acsami.8b17100
   ThH10,  225,      300,  1.11  ,       1775, 0.15,  121.4    , https://doi.org/10.1021/acsami.8b17100
    UH10,  225,      100,  1.05  ,     679.27, 0.10,   50.58   , https://doi.org/10.1016/j.physleta.2018.11.048
    UH10,  225,      100,  1.05  ,     679.27, 0.15,   39.42   , https://doi.org/10.1016/j.physleta.2018.11.048
    UH10,  225,      200,  0.66  ,     720.50, 0.10,   21.22   , https://doi.org/10.1016/j.physleta.2018.11.048
    UH10,  225,      200,  0.66  ,     720.50, 0.15,   12.51   , https://doi.org/10.1016/j.physleta.2018.11.048
    UH10,  225,      300,  0.54  ,     716.58, 0.10,   11.93   , https://doi.org/10.1016/j.physleta.2018.11.048
    UH10,  225,      300,  0.54  ,     716.58, 0.15,    5.57   , https://doi.org/10.1016/j.physleta.2018.11.048
    UH10,  225,      400,  0.50  ,     764.61, 0.10,    9.50   , https://doi.org/10.1016/j.physleta.2018.11.048
    UH10,  225,      400,  0.50  ,     764.61, 0.15,    3.85   , https://doi.org/10.1016/j.physleta.2018.11.048
    UH10,  225,      500,  0.53  ,     969.50, 0.10,   15.11   , https://doi.org/10.1016/j.physleta.2018.11.048
    UH10,  225,      500,  0.53  ,     969.50, 0.15,    6.84   , https://doi.org/10.1016/j.physleta.2018.11.048
   CaH4 ,   63,      200,  0.46  ,     1398.0, 0.10,   11.6    , https://doi.org/10.1021/acs.inorgchem.8b03165
   CaH4 ,   63,      200,  0.46  ,     1398.0, 0.13,    6.3    , https://doi.org/10.1021/acs.inorgchem.8b03165
   CaH4 ,   63,      300,  0.64  ,     1441.1, 0.10,   39.6    , https://doi.org/10.1021/acs.inorgchem.8b03165
   CaH4 ,   63,      300,  0.64  ,     1441.1, 0.13,   29.0    , https://doi.org/10.1021/acs.inorgchem.8b03165
   CaH4 ,   63,      400,  0.64  ,     1587.5, 0.10,   44.1    , https://doi.org/10.1021/acs.inorgchem.8b03165
   CaH4 ,   63,      400,  0.64  ,     1587.5, 0.13,   32.3    , https://doi.org/10.1021/acs.inorgchem.8b03165
   CaH9 ,   12,      300,  2.93  ,     1060.3, 0.10,  266.4    , https://doi.org/10.1021/acs.inorgchem.8b03165
   CaH9 ,   12,      300,  2.93  ,     1060.3, 0.13,  239.3    , https://doi.org/10.1021/acs.inorgchem.8b03165
   CaH9 ,   12,      350,  2.29  ,     1355.5, 0.10,  274.7    , https://doi.org/10.1021/acs.inorgchem.8b03165
   CaH9 ,   12,      350,  2.29  ,     1355.5, 0.13,  256.6    , https://doi.org/10.1021/acs.inorgchem.8b03165
   CaH9 ,   12,      400,  2.27  ,     1404.1, 0.10,  285.2    , https://doi.org/10.1021/acs.inorgchem.8b03165
   CaH9 ,   12,      400,  2.27  ,     1404.1, 0.13,  260.6    , https://doi.org/10.1021/acs.inorgchem.8b03165
   CaH10,  166,      400,  1.67  ,     1166.4, 0.10,  175.3    , https://doi.org/10.1021/acs.inorgchem.8b03165
   CaH10,  166,      400,  1.67  ,     1166.4, 0.13,  156.9    , https://doi.org/10.1021/acs.inorgchem.8b03165
    BH2 ,   15,      250,  0.600 ,    1627.87, 0.10,   37.31   , https://doi.org/10.1039/C9CP00310J
    BH2 ,   15,      250,  0.600 ,    1627.87, 0.13,   28.18   , https://doi.org/10.1039/C9CP00310J
    BH2 ,   15,      300,  0.582 ,    1641.62, 0.10,   34.24   , https://doi.org/10.1039/C9CP00310J
    BH2 ,   15,      300,  0.582 ,    1641.62, 0.13,   23.62   , https://doi.org/10.1039/C9CP00310J
    BH2 ,   15,      350,  0.580 ,    1614.59, 0.10,   33.31   , https://doi.org/10.1039/C9CP00310J
    BH2 ,   15,      350,  0.580 ,    1614.59, 0.13,   22.92   , https://doi.org/10.1039/C9CP00310J
    BH2 ,   15,      400,  0.546 ,    1668.52, 0.10,   28.03   , https://doi.org/10.1039/C9CP00310J
    BH2 ,   15,      400,  0.546 ,    1668.52, 0.13,   18.38   , https://doi.org/10.1039/C9CP00310J
    BH  ,  191,      250,  0.377 ,    1530.52, 0.10,    4.522  , https://doi.org/10.1039/C9CP00310J
    BH  ,  191,      250,  0.377 ,    1530.52, 0.13,    1.726  , https://doi.org/10.1039/C9CP00310J
   CaH6 ,  229,      150,        ,           , 0.10,  220      , https://doi.org/10.1073/pnas.1118168109
   CaH6 ,  229,      150,        ,           , 0.13,  235      , https://doi.org/10.1073/pnas.1118168109
   CaH6 ,  229,      200,        ,           , 0.13,  201      , https://doi.org/10.1073/pnas.1118168109
   CaH6 ,  229,      250,        ,           , 0.13,  187      , https://doi.org/10.1073/pnas.1118168109
   PbH8 ,   12,      230,        ,           , 0.1 ,  107      , https://doi.org/10.1038/srep16475
   PbH8 ,   12,      140,        ,           , 0.1 ,   76.49   , https://doi.org/10.1038/srep16475
   PbH8 ,   12,      180,        ,           , 0.1 ,   97.14   , https://doi.org/10.1038/srep16475
   PbH8 ,   12,      200,        ,           , 0.1 ,  103.2    , https://doi.org/10.1038/srep16475
   PbH8 ,   12,      250,        ,           , 0.1 ,  106.2    , https://doi.org/10.1038/srep16475
   PbH8 ,   12,      300,        ,           , 0.1 ,  105.1    , https://doi.org/10.1038/srep16475
   PbH8 ,   12,      350,        ,           , 0.1 ,  104.0    , https://doi.org/10.1038/srep16475
   PbH8 ,   12,      140,        ,           , 0.15,   63.11   , https://doi.org/10.1038/srep16475
   PbH8 ,   12,      180,        ,           , 0.15,   81.16   , https://doi.org/10.1038/srep16475
   PbH8 ,   12,      200,        ,           , 0.15,   85.10   , https://doi.org/10.1038/srep16475
   PbH8 ,   12,      250,        ,           , 0.15,   89.15   , https://doi.org/10.1038/srep16475
   PbH8 ,   12,      300,        ,           , 0.15,   88.11   , https://doi.org/10.1038/srep16475
   PbH8 ,   12,      350,        ,           , 0.15,   86.24   , https://doi.org/10.1038/srep16475
   AlH3 ,     ,      110,  0.74  ,           , 0.14,   24      , https://doi.org/10.1103/PhysRevLett.100.045504
   AlH3 ,     ,      165,        ,           , 0.14,    6      , https://doi.org/10.1103/PhysRevLett.100.045504
   LaH10,     ,      200,        ,           , 0.1 ,  288      , https://doi.org/10.1103/PhysRevLett.119.107001
   LaH4 ,     ,      300,  0.43  ,       1624, 0.1 ,   10      , https://doi.org/10.1073/pnas.1704505114
   LaH8 ,     ,      300,  1.12  ,       1591, 0.1 ,  131      , https://doi.org/10.1073/pnas.1704505114
   LaH10,     ,      210,  3.41  ,        848, 0.1 ,  238      , https://doi.org/10.1073/pnas.1704505114
   LaH10,     ,      250,  2.29  ,       1253, 0.1 ,  232      , https://doi.org/10.1073/pnas.1704505114
   LaH10,     ,      300,  1.78  ,       1488, 0.1 ,  215      , https://doi.org/10.1073/pnas.1704505114
    YH10,     ,      250,  2.58  ,       1282, 0.1 ,  265      , https://doi.org/10.1073/pnas.1704505114
    YH10,     ,      300,  2.06  ,       1511, 0.1 ,  255      , https://doi.org/10.1073/pnas.1704505114
   LaH4 ,     ,      300,  0.43  ,       1624, 0.13,    5      , https://doi.org/10.1073/pnas.1704505114
   LaH8 ,     ,      300,  1.12  ,       1591, 0.13,  114      , https://doi.org/10.1073/pnas.1704505114
   LaH10,     ,      210,  3.41  ,        848, 0.13,  219      , https://doi.org/10.1073/pnas.1704505114