formula,group,  P [GPa],  lambda,  w_log [K],   mu,     Tc [K], reference
   GeH8 ,   14,      330, 1.051  ,           , 0.10,   67.11   , https://doi.org/10.1016/j.physb.2012.10.039 
   GeH8 ,   14,      350, 0.7800 ,           , 0.10,   46.00   , https://doi.org/10.1016/j.physb.2012.10.039 
   GeH8 ,   14,      230, 1.571  ,           , 0.15,   73.11   , https://doi.org/10.1016/j.physb.2012.10.039 
   GeH8 ,   14,      250, 1.431  ,           , 0.15,   69.33   , https://doi.org/10.1016/j.physb.2012.10.039 
   GeH8 ,   14,      270, 1.342  ,           , 0.15,   67.11   , https://doi.org/10.1016/j.physb.2012.10.039 
   GeH8 ,   14,      290, 1.282  ,           , 0.15,   64.00   , https://doi.org/10.1016/j.physb.2012.10.039 
   GeH8 ,   14,      310, 1.189  ,           , 0.15,   55.78   , https://doi.org/10.1016/j.physb.2012.10.039 
   GeH8 ,   14,      330, 1.051  ,           , 0.15,   41.78   , https://doi.org/10.1016/j.physb.2012.10.039 
   GeH8 ,   14,      350, 0.7800 ,           , 0.15,   23.11   , https://doi.org/10.1016/j.physb.2012.10.039 
   GeH3 ,   66,      220, 1.65  ,            ,     ,   80.3    , https://doi.org/10.1039/C4RA13183E 
   GeH3 ,  223,      180,        ,           ,     ,  140      , http://doi.org/10.1103/PhysRevB.88.174110 
   SnH8 ,  119,      250, 1.139  ,    859.001, 0.10,   72      , https://doi.org/10.1039/C5RA20428C
   SnH8 ,  119,      300, 1.354  ,    724.997, 0.10,   75      , https://doi.org/10.1039/C5RA20428C
   SnH8 ,  119,      350, 1.392  ,    762.179, 0.10,   81      , https://doi.org/10.1039/C5RA20428C
   SnH8 ,  119,      250, 1.139  ,    859.001, 0.13,   63      , https://doi.org/10.1039/C5RA20428C
   SnH8 ,  119,      300, 1.354  ,    724.997, 0.13,   67      , https://doi.org/10.1039/C5RA20428C
   SnH8 ,  119,      350, 1.392  ,    762.179, 0.13,   73      , https://doi.org/10.1039/C5RA20428C
   SnH4 ,   12,      500, 1.023  ,   1026    , 0.13,   63.83   , https://doi.org/10.1039/C5RA27037E 
   SnH4 ,   12,      550, 1.145  ,   1146    , 0.13,   84.67   , https://doi.org/10.1039/C5RA27037E 
   SnH4 ,   12,      600, 1.270  ,   1105    , 0.13,   94.73   , https://doi.org/10.1039/C5RA27037E 
    PH  ,    5,       80, 0.63   ,    476.7  , 0.10,   12.3    , https://doi.org/10.1002/anie.201701660
    PH2 ,   12,       80, 0.95   ,    467.2  , 0.10,   30.1    , https://doi.org/10.1002/anie.201701660
    PH2 ,   65,       80, 0.88   ,    529.4  , 0.10,   29.5    , https://doi.org/10.1002/anie.201701660
    PH4 ,   12,       80, 0.37   ,    683.2  , 0.10,    1.9    , https://doi.org/10.1002/anie.201701660
   SbH4 ,  194,      150, 1.26   ,   1118.60 , 0.10,  106      , https://arxiv.org/abs/1506.03889
   SbH4 ,  194,      200, 1.17   ,   1134.02 , 0.10,   98      , https://arxiv.org/abs/1506.03889
   SbH4 ,  194,      250, 1.13   ,   1096.54 , 0.10,   90      , https://arxiv.org/abs/1506.03889
   SbH4 ,  194,      300, 1.12   ,    998.36 , 0.10,   82      , https://arxiv.org/abs/1506.03889
   SbH4 ,  194,      150, 1.26   ,   1118.60 , 0.13,   95      , https://arxiv.org/abs/1506.03889
   SbH4 ,  194,      200, 1.17   ,   1134.02 , 0.13,   87      , https://arxiv.org/abs/1506.03889
   SbH4 ,  194,      250, 1.13   ,   1096.54 , 0.13,   79      , https://arxiv.org/abs/1506.03889
   SbH4 ,  194,      300, 1.12   ,    998.36 , 0.13,   72      , https://arxiv.org/abs/1506.03889
   SbH  ,   62,      200, 0.50   ,    853.93 , 0.10,   10.5    , https://arxiv.org/abs/1506.03889
   SbH  ,   62,      300, 0.43   ,    966.71 , 0.10,    5.6    , https://arxiv.org/abs/1506.03889
   SbH  ,   62,      200, 0.50   ,    853.93 , 0.13,    6.3    , https://arxiv.org/abs/1506.03889
   SbH  ,   62,      300, 0.43   ,    966.71 , 0.13,    2.7    , https://arxiv.org/abs/1506.03889
   BiH2 ,   62,      125, 1.24   ,    422    , 0.13,   39      , https://doi.org/10.1103/PhysRevB.92.224109 
   BiH3 ,  141,      270, 1.07   ,    905    , 0.13,   65      , https://doi.org/10.1103/PhysRevB.92.224109 
   SbH3 ,   62,      170, 1.25   ,    731    , 0.13,   68      , https://doi.org/10.1103/PhysRevB.92.224109 
   PoH  ,  194,      300,        ,           , 0.10,    0.65   , https://doi.org/10.1039/C5RA19223D 
   PoH2 ,   62,      200,        ,           , 0.10,    0.00   , https://doi.org/10.1039/C5RA19223D 
   PoH4 ,   15,      200,        ,           , 0.10,   47.2    , https://doi.org/10.1039/C5RA19223D 
   PoH6 ,   12,      200,        ,           , 0.10,    4.68   , https://doi.org/10.1039/C5RA19223D 
   PoH  ,  194,      300,        ,           , 0.13,    0.14   , https://doi.org/10.1039/C5RA19223D 
   PoH2 ,   62,      200,        ,           , 0.13,    0.00   , https://doi.org/10.1039/C5RA19223D 
   PoH4 ,   15,      200,        ,           , 0.13,   41.1    , https://doi.org/10.1039/C5RA19223D 
   PoH6 ,   12,      200,        ,           , 0.13,    2.25   , https://doi.org/10.1039/C5RA19223D 
   PoH4 ,   15,      150, 1.18   ,    423.8  , 0.10,   37.2    , https://doi.org/10.1039/C5RA19223D 
   PoH4 ,   15,      200, 1.08   ,    603.0  , 0.10,   47.2    , https://doi.org/10.1039/C5RA19223D 
   PoH4 ,   15,      250, 0.97   ,    804.2  , 0.10,   53.6    , https://doi.org/10.1039/C5RA19223D 
   PoH4 ,   15,      150, 1.18   ,    423.8  , 0.13,   32.9    , https://doi.org/10.1039/C5RA19223D 
   PoH4 ,   15,      200, 1.08   ,    603.0  , 0.13,   41.2    , https://doi.org/10.1039/C5RA19223D 
   PoH4 ,   15,      250, 0.97   ,    804.2  , 0.13,   45.7    , https://doi.org/10.1039/C5RA19223D 
   ClH2 ,  166,      400, 0.66   ,   1368    , 0.10,   44.8    , https://doi.org/10.1039/C6CP08708F 
   ClH2 ,  166,      400, 0.66   ,   1368    , 0.13,   43.9    , https://doi.org/10.1039/C6CP08708F 
   BrH  ,   11,      140, 0.7466 ,    684.74 , 0.10,   27.680  , https://doi.org/10.1063/1.3471446 
   BrH  ,   11,      160, 0.7961 ,    725.39 , 0.10,   33.655  , https://doi.org/10.1063/1.3471446 
   BrH  ,   11,      180, 0.9761 ,    727.93 , 0.10,   48.818  , https://doi.org/10.1063/1.3471446 
   BrH  ,   11,      200, 0.9942 ,    744.55 , 0.10,   51.385  , https://doi.org/10.1063/1.3471446 
   ClH  ,   11,      240, 0.4499 ,    937.11 , 0.10,    7.224  , https://doi.org/10.1063/1.3471446 
   ClH  ,   11,      280, 0.5305 ,    920.70 , 0.10,   14.003  , https://doi.org/10.1063/1.3471446 
   ClH  ,   11,      320, 0.6837 ,    909.42 , 0.10,   29.834  , https://doi.org/10.1063/1.3471446 
   ClH  ,   11,      360, 0.7818 ,    909.78 , 0.13,   32.577  , https://doi.org/10.1063/1.3471446 
   BrH  ,   11,      140, 0.7466 ,    684.74 , 0.13,   21.083  , https://doi.org/10.1063/1.3471446 
   BrH  ,   11,      160, 0.7961 ,    725.39 , 0.13,   27.144  , https://doi.org/10.1063/1.3471446 
   BrH  ,   11,      180, 0.9761 ,    727.93 , 0.13,   41.684  , https://doi.org/10.1063/1.3471446 
   BrH  ,   11,      200, 0.9942 ,    744.55 , 0.13,   44.048  , https://doi.org/10.1063/1.3471446 
   ClH  ,   11,      240, 0.4499 ,    937.11 , 0.13,    3.834  , https://doi.org/10.1063/1.3471446 
   ClH  ,   11,      280, 0.5305 ,    920.70 , 0.13,    8.963  , https://doi.org/10.1063/1.3471446 
   ClH  ,   11,      320, 0.6837 ,    909.42 , 0.13,   22.613  , https://doi.org/10.1063/1.3471446 
   BrH  ,   12,      150, 0.6700 ,    882.0  , 0.12,   28.4    , https://doi.org/10.1039/C5RA06998J 
   BrH  ,   12,      200, 0.5400 ,    964.9  , 0.12,   15.7    , https://doi.org/10.1039/C5RA06998J 
   BrH  ,   12,      250, 0.4849 ,   1038.0  , 0.12,   10.6    , https://doi.org/10.1039/C5RA06998J 
   BrH  ,   12,      300, 0.4509 ,   1125.0  , 0.12,    9.8    , https://doi.org/10.1039/C5RA06998J 
   BrH2 ,   63,      240, 0.51   ,    919    , 0.10,   12.1    , https://arxiv.org/abs/1504.01196
   BrH2 ,   63,      240, 0.51   ,    919    , 0.13,    7.5    , https://arxiv.org/abs/1504.01196
   BrH4 ,  194,      240, 0.35   ,   1302    , 0.10,    2.4    , https://arxiv.org/abs/1504.01196
   BrH4 ,  194,      240, 0.35   ,   1302    , 0.13,    0.8    , https://arxiv.org/abs/1504.01196
    SH2 ,    7,      100, 1.49   ,    380    , 0.10,   42      , https://doi.org/10.1038/s41598-019-41607-1
    SH2 ,    7,      110, 1.56   ,    356    , 0.10,   42      , https://doi.org/10.1038/s41598-019-41607-1
    SH2 ,    7,      120, 1.64   ,    344    , 0.10,   42      , https://doi.org/10.1038/s41598-019-41607-1
    SH2 ,    7,      130, 1.75   ,    332    , 0.10,   43      , https://doi.org/10.1038/s41598-019-41607-1